23
Lattice="35.092220037 0.0 0.0 0.0 37.773739944 0.0 0.0 0.0 33.527971637" Properties=species:S:1:pos:R:3:forces:R:3 energy_cohes=-103.49186504 energy=-131.4727517 stress="-7.720746788717591e-06 3.994565840565286e-07 -6.266475162386792e-06 3.994565840565286e-07 -3.498365865057566e-05 9.799169327636717e-07 -6.266475162386792e-06 9.799169327636717e-07 -1.898042925181099e-05" free_energy=-131.4727517 config_type=qm9 pbc="T T T"
C       17.57577000      16.05970000      16.57399000       0.03504700      -0.72271900       0.03193100
C       17.51199000      17.25918000      16.51302000      -0.07500800       1.04948700      -0.07595600
C       17.45548000      18.72011000      16.46533000       0.11505400      -0.06654800       0.20824200
C       16.67418000      19.26773000      17.69139000      -0.02558200       0.14665600      -0.16955900
C       15.96094000      20.61733000      17.48960000       0.18870100      -0.04202100      -0.08948700
C       16.72078000      21.70441000      16.70273000       0.09993700      -0.14130600       0.15539100
C       18.24202000      21.76287000      16.92306000      -0.09689100      -0.13319500      -0.16292200
C       19.02609000      20.77463000      16.04350000      -0.13661200      -0.07252500       0.17595800
C       18.89840000      19.28577000      16.39042000      -0.11428200       0.15296200      -0.05820900
H       20.09222000      21.03003000      16.07996000       0.15442900       0.03373900       0.00436700
H       18.71683000      20.92812000      15.00000000      -0.05002400       0.02446500      -0.14800200
H       18.48377000      21.60682000      17.98308000       0.03838600      -0.01981300       0.15469700
H       18.59102000      22.77374000      16.68157000       0.04628700       0.14580200      -0.02815700
H       16.27592000      22.67365000      16.95539000      -0.06248700       0.14151900       0.03419800
H       16.54055000      21.57301000      15.62777000      -0.02176200      -0.01774200      -0.16116800
H       15.92552000      18.52955000      17.99357000      -0.10921800      -0.11792500       0.04365600
H       15.00000000      20.44319000      16.98997000      -0.13151600      -0.02920500      -0.07226300
H       17.37983000      19.33534000      18.52797000       0.11278500      -0.00384500       0.11531000
H       19.37996000      19.08657000      17.35641000       0.05598600      -0.03375000       0.15067000
H       16.91859000      19.00234000      15.54778000      -0.09348000       0.02849900      -0.15659800
H       17.62370000      15.00000000      16.61661000       0.01690800      -0.28546500       0.01815900
H       15.70998000      21.00333000      18.48527000      -0.02924600       0.05573300       0.14086900
H       19.45878000      18.70811000      15.64756000       0.08258700      -0.09280500      -0.11112600
23
Lattice="35.167707394 0.0 0.0 0.0 37.494690931 0.0 0.0 0.0 33.41674012" Properties=species:S:1:pos:R:3:forces:R:3 energy_cohes=-103.80360557999998 energy=-131.78449224 stress="-4.793479008678342e-06 5.5362185946584495e-06 -8.451003356445932e-06 5.5362185946584495e-06 -3.488379450456153e-05 5.5362185946584495e-06 -8.451003356445932e-06 5.5362185946584495e-06 -1.6783418039500082e-05" free_energy=-131.78449224 config_type=qm9 pbc="T T T"
C       15.47280000      16.06080000      17.33972000      -0.01560900      -0.68604000       0.00119900
C       15.50548000      17.26281000      17.33310000       0.00005200       1.03812600      -0.00227200
C       15.56900000      18.71967000      17.33814000       0.18636000      -0.13517400      -0.00786300
C       17.00716000      19.28452000      17.29127000      -0.05789600       0.10604500      -0.17280900
C       17.74054000      18.89999000      15.99561000       0.08424900       0.13919100       0.18425100
C       19.15863000      19.48542000      15.94808000      -0.19931400       0.13102900       0.02416300
C       19.14470000      21.00903000      16.13534000      -0.09194300      -0.15574900       0.15734200
C       18.41073000      21.40387000      17.42494000      -0.08449400      -0.13314900      -0.18659900
C       16.99519000      20.81146000      17.47082000       0.18831800      -0.12014000      -0.01746200
H       18.36504000      22.49469000      17.52002000      -0.00811000       0.15613100       0.01297400
H       18.98117000      21.04003000      18.29086000       0.08392100      -0.04934600       0.12584500
H       18.64049000      21.47361000      15.27621000      -0.07450900       0.06552900      -0.12165300
H       20.16771000      21.40192000      16.14473000       0.14742200       0.05697100       0.00523300
H       19.64125000      19.22232000      15.00000000       0.06902300      -0.03739600      -0.13449400
H       19.76528000      19.02822000      16.74217000       0.08954500      -0.06622100       0.11497300
H       15.06459000      19.09690000      18.23764000      -0.07685700       0.03901900       0.13936200
H       17.76931000      17.81006000      15.89605000       0.01405700      -0.17395700      -0.01827900
H       17.55868000      18.84662000      18.13564000       0.09058400      -0.07427900       0.13557900
H       16.38721000      21.26038000      16.67144000      -0.08944400       0.06019100      -0.12291900
H       15.00000000      19.11340000      16.48443000      -0.08655100       0.04271100      -0.14040800
H       15.43221000      15.00000000      17.34463000      -0.00481000      -0.28980600       0.00010800
H       17.16402000      19.27752000      15.13770000      -0.09248900       0.05333100      -0.11810200
H       16.50556000      21.07430000      18.41674000      -0.07150400       0.03298300       0.14183400
23
Lattice="34.244426307 0.0 0.0 0.0 38.625722336 0.0 0.0 0.0 33.461773409" Properties=species:S:1:pos:R:3:forces:R:3 energy_cohes=-103.54866837999998 energy=-131.52955504 stress="-7.851818480361138e-06 6.7096223103245025e-06 -6.84069400196805e-06 6.7096223103245025e-06 -3.0371183406547935e-05 5.5986336859172835e-06 -6.84069400196805e-06 5.5986336859172835e-06 -1.9741893365168744e-05" free_energy=-131.52955504 config_type=qm9 pbc="T T T"
C       15.46959000      16.05913000      15.72706000      -0.01685800      -0.70020400      -0.04315900
C       15.48926000      17.25898000      15.80000000      -0.00504200       1.04712500       0.06548100
C       15.54880000      18.71281000      15.88990000       0.19590900      -0.12296300      -0.00684800
C       16.99337000      19.25495000      15.93829000      -0.14752300       0.12976600      -0.01110900
C       17.06748000      20.78169000      15.99815000       0.08736300      -0.06311600       0.17331000
C       16.46991000      21.41728000      17.27579000       0.15960800       0.10925000      -0.12998400
C       17.18515000      22.78783000      17.44890000       0.04170600      -0.16923500      -0.14599300
C       18.32308000      22.81091000      16.39307000      -0.11349700      -0.18180700       0.06838900
C       18.49989000      21.34332000      15.97311000      -0.17888800       0.12490700       0.05309500
H       19.24443000      23.25934000      16.77488000       0.13050700       0.05794700       0.06122200
H       18.01789000      23.40490000      15.52397000      -0.04365100       0.08593200      -0.12729500
H       17.58670000      22.88555000      18.46177000       0.06096000       0.00507800       0.14176300
H       16.49686000      23.62572000      17.30736000      -0.09881000       0.11380000      -0.02963200
H       16.68394000      20.76763000      18.13360000       0.03998200      -0.10550600       0.12359000
H       15.38232000      21.52010000      17.22480000      -0.15937100       0.03009100      -0.01376300
H       15.00000000      19.04322000      16.78055000      -0.09188000       0.02143000       0.14187700
H       17.53149000      18.89102000      15.05524000       0.08237100      -0.04768800      -0.12869000
H       17.50424000      18.82749000      16.81030000       0.07832100      -0.05836100       0.13631600
H       19.11369000      20.80696000      16.70983000       0.08051400      -0.08431500       0.11206400
H       15.02447000      19.15275000      15.03083000      -0.08134100       0.04575100      -0.13406200
H       15.43929000      15.00000000      15.66237000      -0.00114900      -0.29034500      -0.01764000
H       16.53378000      21.18911000      15.12578000      -0.08294500       0.06682300      -0.14175700
H       18.98742000      21.22820000      15.00000000       0.06371300      -0.01436000      -0.14717600
23
Lattice="35.705996044 0.0 0.0 0.0 38.592023714 0.0 0.0 0.0 33.293670061" Properties=species:S:1:pos:R:3:forces:R:3 energy_cohes=-102.78193568999998 energy=-130.76282235 stress="-1.0111244783930878e-05 8.525901465956531e-06 -8.245033555291785e-06 8.525901465956531e-06 -3.0190179641897326e-05 -3.058339471682796e-07 -8.245033555291785e-06 -3.058339471682796e-07 -1.9329953762860452e-05" free_energy=-130.76282235 config_type=qm9 pbc="T T T"
C       15.64556000      16.05768000      17.07848000       0.00506800      -0.69650200      -0.06005700
C       15.62984000      17.25529000      17.18218000      -0.04221000       1.03814300       0.09276400
C       15.64530000      18.70795000      17.30415000       0.20090700      -0.10992600      -0.03590100
C       17.06032000      19.31081000      17.19104000      -0.14149200       0.14282800       0.02544700
C       17.06307000      20.83723000      17.32517000       0.15292300      -0.15017500      -0.01589400
C       18.45210000      21.44904000      17.20267000      -0.13380100       0.08602000      -0.13270200
C       19.17492000      21.43894000      15.82268000       0.00981600       0.13701600       0.15491800
C       19.70845000      22.86275000      16.13520000      -0.15101700      -0.11672000       0.06577100
C       18.59997000      22.99753000      17.21341000       0.10352600      -0.15272100      -0.09729400
H       19.71876000      23.59202000      15.32184000      -0.00436400       0.10737200      -0.12294600
H       20.70600000      22.83092000      16.58289000       0.14207400      -0.01097600       0.07088300
H       18.45131000      21.45312000      15.00000000      -0.12176500       0.00394900      -0.11337000
H       19.90430000      20.64888000      15.62773000       0.10813300      -0.12799800      -0.02362100
H       19.11242000      21.01321000      17.96309000       0.11560300      -0.06503000       0.12164500
H       16.62555000      21.11951000      18.29367000      -0.05367300       0.04748500       0.14060000
H       15.20136000      18.99815000      18.26580000      -0.06821900       0.01917100       0.14843200
H       17.49432000      19.01780000      16.22803000       0.06443000      -0.04189100      -0.14369300
H       17.69845000      18.86695000      17.96446000       0.09157900      -0.06356800       0.11126500
H       17.70367000      23.48104000      16.80989000      -0.13648200       0.05981900      -0.06895600
H       15.00000000      19.14562000      16.53081000      -0.10011000       0.04252600      -0.12320700
H       15.64717000      15.00000000      16.98803000       0.00753500      -0.29011200      -0.02543700
H       16.40904000      21.27399000      16.55656000      -0.08956600       0.07080600      -0.11766900
H       18.85683000      23.48039000      18.15979000       0.04110600       0.07048400       0.14902300
23
Lattice="35.807192118 0.0 0.0 0.0 39.53151526 0.0 0.0 0.0 33.309788135" Properties=species:S:1:pos:R:3:forces:R:3 energy_cohes=-102.70796021999999 energy=-130.68884688 stress="-7.73947131609524e-06 8.663214666725962e-06 -3.794837548537021e-06 8.663214666725962e-06 -3.56390171087934e-05 2.671365905878034e-06 -3.794837548537021e-06 2.671365905878034e-06 -1.9716927328665214e-05" free_energy=-130.68884688 config_type=qm9 pbc="T T T"
C       15.62685000      16.05839000      16.27337000      -0.02072400      -0.69901000      -0.04976000
C       15.65306000      17.25716000      16.35994000      -0.00253500       1.04201400       0.08199500
C       15.71957000      18.71025000      16.45751000       0.19216400      -0.11829700      -0.05485400
C       17.12690000      19.27328000      16.17247000      -0.13589300       0.14900900       0.04808200
C       17.18336000      20.79936000      16.28177000       0.15902100      -0.13668400      -0.05229000
C       18.57808000      21.37420000      16.00104000      -0.18240300       0.10916500       0.05920000
C       18.63219000      22.88395000      16.10403000       0.06683900      -0.16188900       0.05956900
C       18.82637000      23.55171000      17.44331000       0.03315400      -0.00966300      -0.09373600
C       19.92737000      23.59020000      16.41059000      -0.09545800      -0.01543500       0.02158700
H       18.96995000      22.91361000      18.30979000       0.02141300      -0.12199400       0.12739200
H       18.28416000      24.46695000      17.65385000      -0.08207900       0.14600100       0.02064300
H       17.96693000      23.40034000      15.41529000      -0.10538900       0.10307000      -0.11255300
H       18.90541000      21.06080000      15.00000000       0.05057700      -0.03550700      -0.14643300
H       19.29964000      20.93919000      16.70615000       0.11015600      -0.06521900       0.10551100
H       16.86113000      21.11007000      17.28456000      -0.04434500       0.04805800       0.15120400
H       15.39827000      19.02354000      17.45977000      -0.05150100       0.02281200       0.15509200
H       17.43962000      18.95677000      15.17032000       0.04509500      -0.04754400      -0.14674900
H       17.83823000      18.82058000      16.87360000       0.10300500      -0.06503100       0.10236900
H       20.80719000      22.97941000      16.58621000       0.13053300      -0.11334700       0.03091900
H       15.00000000      19.15606000      15.75790000      -0.11236800       0.04411000      -0.11116000
H       15.59119000      15.00000000      16.19967000      -0.00263600      -0.28984800      -0.02180200
H       16.46179000      21.24221000      15.58091000      -0.09754300       0.06530200      -0.10003400
H       20.13513000      24.53152000      15.91373000       0.02091700       0.14992700      -0.07419100
23
Lattice="36.444371719 0.0 0.0 0.0 35.826979991 0.0 0.0 0.0 34.097516574" Properties=species:S:1:pos:R:3:forces:R:3 energy_cohes=-102.56000208999998 energy=-130.54088875 stress="-8.2387920461659e-06 8.706905230607146e-06 2.271909321821506e-06 8.706905230607146e-06 -1.850607455824386e-05 -5.367697848259602e-06 2.271909321821506e-06 -5.367697848259602e-06 -2.1658036666814907e-05" free_energy=-130.54088875 config_type=qm9 pbc="T T T"
C       17.24425000      18.23398000      16.81248000       0.09125300      -0.16911900       0.02186700
C       17.13295000      16.72225000      16.80349000      -0.04220100       0.15845800       0.07882000
C       17.01048000      15.95180000      18.09496000      -0.03195900       0.03171000      -0.09174600
C       15.83212000      16.04831000      17.15622000       0.09706000       0.01008200       0.01920700
C       18.66120000      18.73840000      16.95642000      -0.00991300       0.00435600      -0.00402500
C       19.87350000      18.46011000      16.00694000      -0.01905400       0.06885800       0.11874300
C       20.42521000      19.38757000      17.12459000      -0.19388800      -0.06947100      -0.01773200
C       19.12779000      20.22838000      16.97113000       0.06004700      -0.11432000       0.01139500
C       19.65207000      18.50609000      18.14356000       0.00971100       0.06525900      -0.11145200
H       18.82314000      20.82698000      17.83526000      -0.04650100       0.07675600       0.16657400
H       19.00964000      20.78723000      16.03753000      -0.01136300       0.06929900      -0.17487500
H       21.44437000      19.76312000      17.22129000       0.18957700       0.07011300       0.01684900
H       19.81274000      18.88464000      15.00000000      -0.02555100       0.09681100      -0.16012400
H       20.25700000      17.43569000      15.98598000       0.05623500      -0.17940200       0.02829300
H       15.54020000      15.16298000      16.60208000      -0.03456300      -0.14295800      -0.08449500
H       17.71483000      16.23967000      16.02199000       0.09464400      -0.09603900      -0.12913500
H       16.96693000      16.51867000      19.01944000       0.00261400       0.11487400       0.13603900
H       17.52248000      15.00000000      18.18463000       0.07943200      -0.15023300      -0.00074600
H       19.38847000      18.97358000      19.09752000      -0.05842800       0.09982400       0.14521100
H       16.63369000      18.63802000      17.63197000      -0.08175100       0.06922300       0.12742100
H       16.81747000      18.64067000      15.88458000      -0.05158200       0.05744000      -0.13985600
H       15.00000000      16.67934000      17.45188000      -0.12364100       0.11615400       0.04998600
H       20.01647000      17.48515000      18.28670000       0.04982000      -0.18767400      -0.00622100
23
Lattice="36.283831224 0.0 0.0 0.0 36.024950596 0.0 0.0 0.0 34.270857647" Properties=species:S:1:pos:R:3:forces:R:3 energy_cohes=-103.02485175999999 energy=-131.00573842 stress="-1.4074603078866747e-05 1.1515584337254613e-05 -1.97231688377911e-06 1.1515584337254613e-05 -1.587839921624701e-05 -3.6450413295158225e-06 -1.97231688377911e-06 -3.6450413295158225e-06 -1.5354112449672816e-05" free_energy=-131.00573842 config_type=qm9 pbc="T T T"
C       17.25640000      18.12682000      16.84566000       0.12485200      -0.13896700       0.06448300
C       17.17843000      16.62712000      17.07221000      -0.04769500       0.16005600       0.04749700
C       16.96727000      16.06841000      18.45605000      -0.02790800       0.01183000      -0.09106300
C       15.86800000      15.97204000      17.42480000       0.09260300       0.01909100       0.01917200
C       18.64558000      18.68319000      17.01685000      -0.03739700      -0.12252900      -0.04599200
C       19.21633000      19.09089000      18.34803000      -0.04749500       0.03472600      -0.09107300
C       19.12312000      20.12198000      17.25424000       0.18977500      -0.04728200      -0.04590200
C       20.27556000      19.93205000      16.26295000      -0.15491300      -0.13549600       0.06074000
C       19.80186000      18.46036000      16.02472000      -0.03002200       0.18072300       0.10609300
H       21.28383000      20.06728000      16.66942000       0.15263300       0.01847300       0.07663300
H       20.18027000      20.54597000      15.36444000      -0.03089200       0.08484800      -0.12955400
H       18.53510000      21.02495000      17.37496000      -0.12702400       0.16459600       0.02528200
H       20.18739000      18.72506000      18.67769000       0.16709600      -0.06054900       0.03153300
H       18.49042000      19.19742000      19.14849000      -0.13182100       0.01213300       0.11115700
H       15.64182000      15.00000000      17.00025000      -0.02308900      -0.15569900      -0.06323500
H       17.83463000      16.04750000      16.42715000       0.10503100      -0.11099500      -0.10497200
H       16.83467000      16.77281000      19.27086000      -0.01476400       0.13376500       0.11723800
H       17.49135000      15.16192000      18.73838000       0.08121400      -0.14550400       0.02985700
H       20.50890000      17.66312000      16.27814000       0.09713500      -0.13420100       0.05412900
H       16.57132000      18.63153000      17.53995000      -0.10045600       0.08836300       0.10648900
H       16.89352000      18.35837000      15.83363000      -0.04181400       0.03846800      -0.14918400
H       15.00000000      16.61200000      17.54924000      -0.12752800       0.11882500       0.02119200
H       19.45450000      18.30143000      15.00000000      -0.06752100      -0.01467500      -0.15051800
23
Lattice="36.504645959 0.0 0.0 0.0 36.09738622 0.0 0.0 0.0 34.283100864" Properties=species:S:1:pos:R:3:forces:R:3 energy_cohes=-104.18325875 energy=-132.16414541 stress="-8.625765611970665e-06 9.343539161447237e-06 7.45236189630461e-06 9.343539161447237e-06 -2.090281406258303e-05 -1.5853433179743477e-06 7.45236189630461e-06 -1.5853433179743477e-06 -1.7632263280620206e-05" free_energy=-132.16414541 config_type=qm9 pbc="T T T"
C       17.25695000      18.16842000      16.78845000       0.15008000      -0.11898800       0.06002000
C       17.21741000      16.69398000      17.16266000      -0.06965700       0.16293000       0.03753000
C       16.86190000      16.25854000      18.56294000      -0.01859800      -0.01274600      -0.10610900
C       15.89749000      16.01660000      17.42762000       0.08520800       0.02346600       0.03463900
C       18.59963000      18.81278000      16.98797000      -0.26805000      -0.18508300       0.37132700
C       19.35027000      19.38996000      16.04665000       0.35669600       0.20572200      -0.12289300
C       20.61687000      19.99966000      16.59501000      -0.13072400      -0.15602400       0.10912100
C       20.69125000      19.41246000      18.02836000      -0.19485900       0.00619700      -0.12283100
C       19.25277000      18.93765000      18.35292000       0.13021900       0.04351100      -0.19146100
H       21.07913000      20.12524000      18.76064000       0.04789200       0.10788200       0.10076000
H       21.36589000      18.55031000      18.03122000       0.09514600      -0.13094600      -0.00209900
H       20.54667000      21.09739000      16.60494000      -0.02584100       0.15881100      -0.00138800
H       21.50465000      19.75901000      15.99847000       0.11083000      -0.04107700      -0.08294600
H       19.07139000      19.46418000      15.00000000      -0.05873700       0.01186300      -0.19998400
H       15.75769000      15.00000000      17.07702000      -0.01051400      -0.16043700      -0.05131700
H       17.96620000      16.09161000      16.65471000       0.12564000      -0.11041400      -0.07977100
H       16.60914000      17.03013000      19.28310000      -0.03599500       0.14358200       0.10465100
H       17.37945000      15.40703000      18.99111000       0.08412700      -0.13754700       0.05378700
H       18.70603000      19.67002000      18.96604000      -0.09718000       0.11318000       0.07842200
H       16.50129000      18.69520000      17.39108000      -0.09875400       0.09097800       0.09744900
H       16.95324000      18.28700000      15.74087000      -0.03920900       0.01558000      -0.15306900
H       15.00000000      16.62586000      17.38736000      -0.13344600       0.11403700      -0.00573700
H       19.23896000      17.99987000      18.91788000      -0.00427300      -0.14447900       0.07190200
23
Lattice="35.797622275 0.0 0.0 0.0 36.182118667 0.0 0.0 0.0 34.496772814" Properties=species:S:1:pos:R:3:forces:R:3 energy_cohes=-102.36478792999998 energy=-130.34567459 stress="-1.1265923972219282e-05 7.45236189630461e-06 3.1207545629416294e-08 7.45236189630461e-06 -1.37188370586914e-05 -5.336490302630186e-06 3.1207545629416294e-08 -5.336490302630186e-06 -2.0946504626464214e-05" free_energy=-130.34567459 config_type=qm9 pbc="T T T"
C       17.01471000      18.23760000      17.34618000       0.17830200      -0.10524300      -0.00206000
C       17.02659000      16.72191000      17.28614000      -0.03925500       0.16056800       0.07793700
C       17.12821000      15.90446000      18.55055000      -0.04837000       0.01984400      -0.08024000
C       15.84096000      15.92308000      17.76143000       0.09142000       0.01820000       0.00501100
C       18.42022000      18.82574000      17.41823000      -0.14651300       0.01366800      -0.10050900
C       19.35607000      18.91416000      16.16372000      -0.05887500       0.15213000       0.10499600
C       18.50396000      20.11676000      15.66215000       0.06551700      -0.06179100       0.12406800
C       18.70162000      20.34761000      17.18969000       0.07316700      -0.14755100      -0.11074200
C       20.19061000      19.95212000      16.96877000      -0.14819800      -0.03961000      -0.04050700
H       18.32488000      21.18212000      17.78464000      -0.07397200       0.16358600       0.11807100
H       17.49474000      19.91373000      15.30154000      -0.19342200      -0.06255500      -0.03385500
H       19.01370000      20.82239000      15.00000000       0.10468200       0.11243000      -0.09075700
H       19.74245000      18.08558000      15.56698000       0.07114100      -0.16702000      -0.11171400
H       18.93161000      18.42107000      18.30039000       0.12706800      -0.05402200       0.15920000
H       15.56042000      15.03191000      17.21073000      -0.03107300      -0.14293500      -0.08538700
H       17.55120000      16.31646000      16.42409000       0.08644200      -0.07898800      -0.14562200
H       17.14695000      16.43631000      19.49677000       0.00357200       0.10762900       0.13943100
H       17.72645000      15.00000000      18.54108000       0.08906900      -0.14324100      -0.01509300
H       20.73536000      19.57747000      17.84014000       0.06305300      -0.08710400       0.15981700
H       16.45720000      18.55262000      18.23947000      -0.07218100       0.05744900       0.12845000
H       16.45664000      18.62996000      16.48890000      -0.09067400       0.06570100      -0.15124200
H       15.00000000      16.46760000      18.17917000      -0.12433600       0.10231300       0.06835400
H       20.79762000      20.64808000      16.38326000       0.07343700       0.11654400      -0.11760600
23
Lattice="35.169415482 0.0 0.0 0.0 37.245572193 0.0 0.0 0.0 34.551122391" Properties=species:S:1:pos:R:3:forces:R:3 energy_cohes=-102.91340634 energy=-130.894293 stress="-1.7126701041423658e-05 3.4078639827322583e-06 7.052905312248082e-07 3.4078639827322583e-06 -9.050188232530724e-06 -6.784520419835102e-06 7.052905312248082e-07 -6.784520419835102e-06 -1.9267538671601618e-05" free_energy=-130.894293 config_type=qm9 pbc="T T T"
C       16.96955000      18.41227000      17.85371000       0.18848700      -0.11070900      -0.03021500
C       16.96336000      16.94607000      17.46625000      -0.04010100       0.14167400       0.10816100
C       17.14449000      15.87811000      18.51650000      -0.05005000       0.03569100      -0.07084700
C       15.80618000      16.05697000      17.83943000       0.09229500       0.01711000       0.00052000
C       18.37354000      18.98370000      17.93205000      -0.14248900       0.00980200      -0.05935600
C       19.17878000      19.49334000      16.76293000      -0.15706200      -0.00475200      -0.09897100
C       18.30994000      20.26211000      15.75746000       0.02786200       0.03083900       0.22506800
C       17.86198000      21.22793000      16.90179000       0.13505400      -0.18333400      -0.04131100
C       18.73818000      20.44333000      17.88861000      -0.17183800       0.04019600      -0.05248900
H       18.22401000      22.24557000      16.73972000       0.06078000       0.14259300      -0.02409900
H       17.52776000      19.69160000      15.24562000      -0.13172400      -0.10826100      -0.07888400
H       18.90470000      20.77729000      15.00000000       0.09152600       0.07590600      -0.10054700
H       20.16942000      19.10780000      16.55059000       0.18919500      -0.06948000      -0.02360100
H       19.00304000      18.43742000      18.63349000       0.11917700      -0.07851000       0.11336100
H       15.48164000      15.30178000      17.13189000      -0.03814000      -0.12085600      -0.11141800
H       17.42783000      16.74165000      16.50459000       0.07833900      -0.04262900      -0.16677500
H       17.23214000      16.19538000      19.55112000       0.01008700       0.07348300       0.15941200
H       17.73248000      15.00000000      18.27296000       0.08621500      -0.13564300      -0.05216700
H       16.79193000      21.27825000      17.12792000      -0.17770000       0.00742800       0.04416600
H       16.47831000      18.52795000      18.82981000      -0.06478900       0.02967300       0.14515000
H       16.35931000      18.97906000      17.14163000      -0.11298400       0.08662200      -0.12281900
H       15.00000000      16.49316000      18.42086000      -0.11839900       0.08492100       0.09824700
H       19.33972000      20.89461000      18.66959000       0.12625900       0.07823800       0.13941500
23
Lattice="35.530574154 0.0 0.0 0.0 37.184841524 0.0 0.0 0.0 34.14697768" Properties=species:S:1:pos:R:3:forces:R:3 energy_cohes=-102.94229066999998 energy=-130.92317733 stress="-1.3775010640824352e-05 3.88846018542527e-06 -2.4966036503533032e-06 3.88846018542527e-06 -1.1977456012569972e-05 -7.901750553368204e-06 -2.4966036503533032e-06 -7.901750553368204e-06 -2.2020044196116133e-05" free_energy=-130.92317733 config_type=qm9 pbc="T T T"
C       17.04793000      18.32604000      17.13325000       0.16334400      -0.13069600       0.01197000
C       17.02470000      16.82016000      16.96329000      -0.04763400       0.15348300       0.09471700
C       17.11869000      15.91468000      18.16677000      -0.04509400       0.02832300      -0.08046200
C       15.82564000      16.01533000      17.39282000       0.09735700       0.01592800       0.00255200
C       18.46333000      18.89655000      17.21277000      -0.09271800       0.06179900      -0.14735400
C       19.38262000      18.87885000      15.93738000      -0.06070200       0.14317600       0.13790000
C       19.59165000      20.39069000      16.08816000      -0.08759900      -0.15102200      -0.09531000
C       18.27127000      21.10078000      16.01002000       0.09071000      -0.03890800       0.07256600
C       18.65331000      20.42003000      17.29699000      -0.11021800      -0.12787500      -0.04840800